 ----------------------------------------------------------------------
 # opt cam-b3lyp/6-31g(d) scrf=(iefpcm,solvent=ethanol) geom=connectivi
 ty
 ----------------------------------------------------------------------

 ----------------------------------
 Anthracene Derivative Optimization
 ----------------------------------
 Symbolic Z-matrix:
 Charge =  0 Multiplicity = 1

 SCF Done:  E(RCAM-B3LYP) =  -669.724189497     A.U. after   14 cycles
 SCF Done:  E(RCAM-B3LYP) =  -669.738253327     A.U. after   12 cycles
 SCF Done:  E(RCAM-B3LYP) =  -669.742116495     A.U. after   12 cycles
 SCF Done:  E(RCAM-B3LYP) =  -669.745166215     A.U. after   13 cycles
 SCF Done:  E(RCAM-B3LYP) =  -669.745771577     A.U. after   11 cycles
 SCF Done:  E(RCAM-B3LYP) =  -669.745953428     A.U. after   11 cycles
 SCF Done:  E(RCAM-B3LYP) =  -669.745962107     A.U. after    9 cycles
 SCF Done:  E(RCAM-B3LYP) =  -669.745963963     A.U. after    8 cycles
 SCF Done:  E(RCAM-B3LYP) =  -669.745964146     A.U. after    7 cycles
 Optimization completed.
    -- Stationary point found.

                         Standard orientation:
 ---------------------------------------------------------------------
 Center     Atomic      Atomic             Coordinates (Angstroms)
 Number     Number       Type             X           Y           Z
 ---------------------------------------------------------------------
      1          6           0       -1.354043    0.398981   -0.000111
      2          6           0       -1.011687   -0.994794    0.001419
      3          6           0       -2.750767    0.771166    0.012648
      4          6           0       -2.049407   -1.976141   -0.023938
      5          6           0        0.336029   -1.359782    0.013795
      6          6           0       -0.331297    1.347181   -0.026588
      7          6           0       -3.707813   -0.210241   -0.018002
      8          7           0       -3.090640    2.124954   -0.004969
      9          6           0       -3.353252   -1.584968   -0.046578
     10          1           0       -1.776087   -3.026760   -0.030615
     11          6           0        1.352075   -0.407238    0.009292
     12          1           0        0.597476   -2.412361    0.019944
     13          6           0        1.017330    0.984234   -0.020039
     14          1           0       -0.570488    2.404328   -0.077793
     15          1           0       -4.757568    0.069418   -0.008134
     16          1           0       -2.520889    2.709798    0.594268
     17          1           0       -4.071648    2.291907    0.185346
     18          1           0       -4.146060   -2.326586   -0.069468
     19          6           0        2.740991   -0.773652    0.020908
     20          6           0        2.065066    1.956311   -0.044997
     21          6           0        3.716920    0.180440   -0.000873
     22          8           0        2.996372   -2.109032    0.053147
     23          6           0        3.367352    1.559621   -0.034926
     24          1           0        1.801583    3.009212   -0.069588
     25          1           0        4.763398   -0.111397    0.007385
     26          1           0        3.954960   -2.253545    0.058209
     27          1           0        4.163843    2.296855   -0.052014
 ---------------------------------------------------------------------

 The electronic state is 1-A.
 Alpha  occ. eigenvalues --  -19.25475 -14.40940 -10.32769 -10.30367 -10.27290
 Alpha  occ. eigenvalues --  -10.27250 -10.27215 -10.27080 -10.26512 -10.26488
 Alpha  occ. eigenvalues --  -10.26308 -10.26097 -10.25826 -10.25606 -10.25182
 Alpha  occ. eigenvalues --  -10.25176  -1.14528  -1.00307  -0.95907  -0.92276
 Alpha  occ. eigenvalues --   -0.88146  -0.85646  -0.82037  -0.81552  -0.77730
 Alpha  occ. eigenvalues --   -0.72347  -0.70240  -0.67795  -0.66180  -0.63297
 Alpha  occ. eigenvalues --   -0.59817  -0.59233  -0.57462  -0.55583  -0.53626
 Alpha  occ. eigenvalues --   -0.53163  -0.50710  -0.50281  -0.49340  -0.49183
 Alpha  occ. eigenvalues --   -0.47751  -0.46513  -0.46034  -0.45052  -0.43373
 Alpha  occ. eigenvalues --   -0.42193  -0.41615  -0.39678  -0.39369  -0.38560
 Alpha  occ. eigenvalues --   -0.35946  -0.32752  -0.29145  -0.27392  -0.22698
 Alpha virt. eigenvalues --   -0.01429   0.02912   0.06956   0.10662   0.12493
 Alpha virt. eigenvalues --    0.13003   0.14223   0.15727   0.16153   0.19265
 Alpha virt. eigenvalues --    0.19511   0.21340   0.22600   0.22780   0.24155

 Mulliken charges:
               1
     1  C    0.107276
     2  C    0.119640
     3  C    0.238318
     4  C   -0.208299
     5  C   -0.300530
     6  C   -0.326926
     7  C   -0.224502
     8  N   -0.809572
     9  C   -0.164644
    10  H    0.143463
    11  C    0.080644
    12  H    0.161143
    13  C    0.127845
    14  H    0.154103
    15  H    0.140975
    16  H    0.345079
    17  H    0.343955
    18  H    0.148046
    19  C    0.291416
    20  C   -0.204672
    21  C   -0.231629
    22  O   -0.656750
    23  C   -0.165404
    24  H    0.147299
    25  H    0.150932
    26  H    0.439629
    27  H    0.153167
 Sum of Mulliken charges =  -0.00000

 Dipole moment (field-independent basis, Debye):
    X=              0.9457    Y=              1.2990    Z=              1.3876  Tot=              2.1230
 Quadrupole moment (field-independent basis, Debye-Ang):
   XX=            -62.3188   YY=            -80.0426   ZZ=            -97.5302
   XY=             -7.8233   XZ=             -3.9149   YZ=              3.8118

 Normal termination of Gaussian DV at Wed Jun  1 02:31:31 2022.
